4
Lattice="2.460394 0.0 0.0 -1.26336 2.044166 0.0 -0.139209 -0.407369 6.809714" Properties=species:S:1:pos:R:3:frac_pos:R:3:force:R:3 energy=-633.014155 config_type=bulk_cryst detailed_ct=dist_graphite task=SinglePoint cut_off_energy="650 eV" spin_polarized=F opt_strategy=speed xc_functional=LDA elec_energy_tol=1e-08 max_scf_cycles=200 fix_occupancy=F smearing_width="0.1 eV" mixing_scheme=Pulay calculate_stress=T finite_basis_corr=automatic popn_calculate=F pdos_calculate_weights=F write_checkpoint=none mix_charge_amp=0.15 mix_history_length=20 nextra_bands=8 kpoints_mp_grid="16 17 5" castep_file_name=42.castep castep_run_time=229.46 virial="-0.15431502 1.63742962 0.01514384 1.63742962 8.78456368 0.04644925 0.01514384 0.04644925 -0.15521026" cutoff=-1.0 nneightol=1.2 pbc="T T T"
C       -0.03480225      -0.10184225       1.70242850       0.00000000       0.00000000       0.25000000       0.24053875      -0.77320230       0.00052483
C       -0.10440675      -0.30552675       5.10728550      -0.00000000      -0.00000000       0.75000000      -0.24053875       0.77320230      -0.00052483
C       -0.05691216       1.26093576       1.70242850       0.33333300       0.66666700       0.25000000      -0.24399619       0.77804678       0.00071640
C        1.11473716       0.37586124       5.10728550       0.66666700       0.33333300       0.75000000       0.24399619      -0.77804678      -0.00071640
