8
Lattice="3.5607451090903233 0.0 0.0 0.0 3.5607451090903233 0.0 0.0 0.0 3.5607451090903233" Properties=species:S:1:pos:R:3:forces:R:3 mpid=mp-66 mp_energy_per_atom=-9.090368165 energy=-1266.3910402713925 virial="-3.4334302742508798 -6.906483220977946e-11 2.9658291413496796e-11 -6.906483220977946e-11 -3.4334302744870806 5.93230350468753e-11 2.9658291413496796e-11 5.93230350468753e-11 -3.4334302744071126" material_id=mp-149 pbc="T T T"
C        0.00000000       0.00000000       1.78037255      -0.00000000       0.00000000       0.00000000
C        0.89018628       0.89018628       2.67055883       0.00000000       0.00000000       0.00000000
C       -0.00000000       1.78037255       0.00000000      -0.00000000       0.00000000       0.00000000
C        0.89018628       2.67055883       0.89018628       0.00000000       0.00000000      -0.00000000
C        1.78037255       0.00000000       0.00000000      -0.00000000      -0.00000000      -0.00000000
C        2.67055883       0.89018628       0.89018628      -0.00000000      -0.00000000       0.00000000
C        1.78037255       1.78037255       1.78037255       0.00000000       0.00000000      -0.00000000
C        2.67055883       2.67055883       2.67055883       0.00000000       0.00000000      -0.00000000
